
Host: CHEMYM0V4HTALT

Timers On : Mon Jun 26 11:46:10 2023
Timers Off: Mon Jun 26 11:50:40 2023

Wall Time:      270.47 seconds

                                                       Time (seconds)
Module                                       User      System        Wall        Calls

--------------------------------------------------------------------------------------

**************************************************************************************
